LAMMPS description

    3072          atoms
    2048          bonds
    1024         angles
       0      dihedrals
       0      impropers

       2     atom types
       1     bond types
       1    angle types
       0 dihedral types
       0 improper types


  0.0000000      36.172000     xlo xhi
  0.0000000      31.326000     ylo yhi
  0.0000000      29.444000     zlo zhi

 Atoms

      1      1      1      0.0000000      3.3910000      1.3050000      1.3810000
      2      1      2      0.0000000      2.5820000      1.7720000      1.7110000
      3      1      2      0.0000000      3.3910000      1.3050000      0.3900000
      4      2      1      0.0000000      3.3910000      1.3050000     16.1030000
      5      2      2      0.0000000      2.5820000      1.7720000     16.4330000
      6      2      2      0.0000000      3.3910000      1.3050000     15.1120000
      7      3      1      0.0000000      3.3910000     16.9680000      1.3810000
      8      3      2      0.0000000      2.5820000     17.4350000      1.7110000
      9      3      2      0.0000000      3.3910000     16.9680000      0.3900000
     10      4      1      0.0000000      3.3910000     16.9680000     16.1030000
     11      4      2      0.0000000      2.5820000     17.4350000     16.4330000
     12      4      2      0.0000000      3.3910000     16.9680000     15.1120000
     13      5      1      0.0000000     21.4770000      1.3050000      1.3810000
     14      5      2      0.0000000     20.6680000      1.7720000      1.7110000
     15      5      2      0.0000000     21.4770000      1.3050000      0.3900000
     16      6      1      0.0000000     21.4770000      1.3050000     16.1030000
     17      6      2      0.0000000     20.6680000      1.7720000     16.4330000
     18      6      2      0.0000000     21.4770000      1.3050000     15.1120000
     19      7      1      0.0000000     21.4770000     16.9680000      1.3810000
     20      7      2      0.0000000     20.6680000     17.4350000      1.7110000
     21      7      2      0.0000000     21.4770000     16.9680000      0.3900000
     22      8      1      0.0000000     21.4770000     16.9680000     16.1030000
     23      8      2      0.0000000     20.6680000     17.4350000     16.4330000
     24      8      2      0.0000000     21.4770000     16.9680000     15.1120000
     25      9      1      0.0000000      3.3910000      1.3050000      8.7420000
     26      9      2      0.0000000      2.5820000      1.7720000      9.0720000
     27      9      2      0.0000000      3.3910000      1.3050000      7.7510000
     28     10      1      0.0000000      3.3910000      1.3050000     23.4640000
     29     10      2      0.0000000      2.5820000      1.7720000     23.7940000
     30     10      2      0.0000000      3.3910000      1.3050000     22.4730000
     31     11      1      0.0000000      3.3910000     16.9680000      8.7420000
     32     11      2      0.0000000      2.5820000     17.4350000      9.0720000
     33     11      2      0.0000000      3.3910000     16.9680000      7.7510000
     34     12      1      0.0000000      3.3910000     16.9680000     23.4640000
     35     12      2      0.0000000      2.5820000     17.4350000     23.7940000
     36     12      2      0.0000000      3.3910000     16.9680000     22.4730000
     37     13      1      0.0000000     21.4770000      1.3050000      8.7420000
     38     13      2      0.0000000     20.6680000      1.7720000      9.0720000
     39     13      2      0.0000000     21.4770000      1.3050000      7.7510000
     40     14      1      0.0000000     21.4770000      1.3050000     23.4640000
     41     14      2      0.0000000     20.6680000      1.7720000     23.7940000
     42     14      2      0.0000000     21.4770000      1.3050000     22.4730000
     43     15      1      0.0000000     21.4770000     16.9680000      8.7420000
     44     15      2      0.0000000     20.6680000     17.4350000      9.0720000
     45     15      2      0.0000000     21.4770000     16.9680000      7.7510000
     46     16      1      0.0000000     21.4770000     16.9680000     23.4640000
     47     16      2      0.0000000     20.6680000     17.4350000     23.7940000
     48     16      2      0.0000000     21.4770000     16.9680000     22.4730000
     49     17      1      0.0000000     12.4340000      1.3050000      1.3810000
     50     17      2      0.0000000     11.6250000      1.7720000      1.7110000
     51     17      2      0.0000000     12.4340000      1.3050000      0.3900000
     52     18      1      0.0000000     12.4340000      1.3050000     16.1030000
     53     18      2      0.0000000     11.6250000      1.7720000     16.4330000
     54     18      2      0.0000000     12.4340000      1.3050000     15.1120000
     55     19      1      0.0000000     12.4340000     16.9680000      1.3810000
     56     19      2      0.0000000     11.6250000     17.4350000      1.7110000
     57     19      2      0.0000000     12.4340000     16.9680000      0.3900000
     58     20      1      0.0000000     12.4340000     16.9680000     16.1030000
     59     20      2      0.0000000     11.6250000     17.4350000     16.4330000
     60     20      2      0.0000000     12.4340000     16.9680000     15.1120000
     61     21      1      0.0000000     30.5200000      1.3050000      1.3810000
     62     21      2      0.0000000     29.7110000      1.7720000      1.7110000
     63     21      2      0.0000000     30.5200000      1.3050000      0.3900000
     64     22      1      0.0000000     30.5200000      1.3050000     16.1030000
     65     22      2      0.0000000     29.7110000      1.7720000     16.4330000
     66     22      2      0.0000000     30.5200000      1.3050000     15.1120000
     67     23      1      0.0000000     30.5200000     16.9680000      1.3810000
     68     23      2      0.0000000     29.7110000     17.4350000      1.7110000
     69     23      2      0.0000000     30.5200000     16.9680000      0.3900000
     70     24      1      0.0000000     30.5200000     16.9680000     16.1030000
     71     24      2      0.0000000     29.7110000     17.4350000     16.4330000
     72     24      2      0.0000000     30.5200000     16.9680000     15.1120000
     73     25      1      0.0000000     12.4340000      1.3050000      8.7420000
     74     25      2      0.0000000     11.6250000      1.7720000      9.0720000
     75     25      2      0.0000000     12.4340000      1.3050000      7.7510000
     76     26      1      0.0000000     12.4340000      1.3050000     23.4640000
     77     26      2      0.0000000     11.6250000      1.7720000     23.7940000
     78     26      2      0.0000000     12.4340000      1.3050000     22.4730000
     79     27      1      0.0000000     12.4340000     16.9680000      8.7420000
     80     27      2      0.0000000     11.6250000     17.4350000      9.0720000
     81     27      2      0.0000000     12.4340000     16.9680000      7.7510000
     82     28      1      0.0000000     12.4340000     16.9680000     23.4640000
     83     28      2      0.0000000     11.6250000     17.4350000     23.7940000
     84     28      2      0.0000000     12.4340000     16.9680000     22.4730000
     85     29      1      0.0000000     30.5200000      1.3050000      8.7420000
     86     29      2      0.0000000     29.7110000      1.7720000      9.0720000
     87     29      2      0.0000000     30.5200000      1.3050000      7.7510000
     88     30      1      0.0000000     30.5200000      1.3050000     23.4640000
     89     30      2      0.0000000     29.7110000      1.7720000     23.7940000
     90     30      2      0.0000000     30.5200000      1.3050000     22.4730000
     91     31      1      0.0000000     30.5200000     16.9680000      8.7420000
     92     31      2      0.0000000     29.7110000     17.4350000      9.0720000
     93     31      2      0.0000000     30.5200000     16.9680000      7.7510000
     94     32      1      0.0000000     30.5200000     16.9680000     23.4640000
     95     32      2      0.0000000     29.7110000     17.4350000     23.7940000
     96     32      2      0.0000000     30.5200000     16.9680000     22.4730000
     97     33      1      0.0000000      1.1310000      2.6110000      2.3000000
     98     33      2      0.0000000      0.3220000      2.1440000      1.9700000
     99     33      2      0.0000000      1.1310000      2.6110000      3.2910000
    100     34      1      0.0000000      1.1310000      2.6110000     17.0220000
    101     34      2      0.0000000      0.3220000      2.1440000     16.6920000
    102     34      2      0.0000000      1.1310000      2.6110000     18.0130000
    103     35      1      0.0000000      1.1310000     18.2740000      2.3000000
    104     35      2      0.0000000      0.3220000     17.8070000      1.9700000
    105     35      2      0.0000000      1.1310000     18.2740000      3.2910000
    106     36      1      0.0000000      1.1310000     18.2740000     17.0220000
    107     36      2      0.0000000      0.3220000     17.8070000     16.6920000
    108     36      2      0.0000000      1.1310000     18.2740000     18.0130000
    109     37      1      0.0000000     19.2170000      2.6110000      2.3000000
    110     37      2      0.0000000     18.4080000      2.1440000      1.9700000
    111     37      2      0.0000000     19.2170000      2.6110000      3.2910000
    112     38      1      0.0000000     19.2170000      2.6110000     17.0220000
    113     38      2      0.0000000     18.4080000      2.1440000     16.6920000
    114     38      2      0.0000000     19.2170000      2.6110000     18.0130000
    115     39      1      0.0000000     19.2170000     18.2740000      2.3000000
    116     39      2      0.0000000     18.4080000     17.8070000      1.9700000
    117     39      2      0.0000000     19.2170000     18.2740000      3.2910000
    118     40      1      0.0000000     19.2170000     18.2740000     17.0220000
    119     40      2      0.0000000     18.4080000     17.8070000     16.6920000
    120     40      2      0.0000000     19.2170000     18.2740000     18.0130000
    121     41      1      0.0000000      1.1310000      2.6110000      9.6610000
    122     41      2      0.0000000      0.3220000      2.1440000      9.3310000
    123     41      2      0.0000000      1.1310000      2.6110000     10.6520000
    124     42      1      0.0000000      1.1310000      2.6110000     24.3830000
    125     42      2      0.0000000      0.3220000      2.1440000     24.0530000
    126     42      2      0.0000000      1.1310000      2.6110000     25.3740000
    127     43      1      0.0000000      1.1310000     18.2740000      9.6610000
    128     43      2      0.0000000      0.3220000     17.8070000      9.3310000
    129     43      2      0.0000000      1.1310000     18.2740000     10.6520000
    130     44      1      0.0000000      1.1310000     18.2740000     24.3830000
    131     44      2      0.0000000      0.3220000     17.8070000     24.0530000
    132     44      2      0.0000000      1.1310000     18.2740000     25.3740000
    133     45      1      0.0000000     19.2170000      2.6110000      9.6610000
    134     45      2      0.0000000     18.4080000      2.1440000      9.3310000
    135     45      2      0.0000000     19.2170000      2.6110000     10.6520000
    136     46      1      0.0000000     19.2170000      2.6110000     24.3830000
    137     46      2      0.0000000     18.4080000      2.1440000     24.0530000
    138     46      2      0.0000000     19.2170000      2.6110000     25.3740000
    139     47      1      0.0000000     19.2170000     18.2740000      9.6610000
    140     47      2      0.0000000     18.4080000     17.8070000      9.3310000
    141     47      2      0.0000000     19.2170000     18.2740000     10.6520000
    142     48      1      0.0000000     19.2170000     18.2740000     24.3830000
    143     48      2      0.0000000     18.4080000     17.8070000     24.0530000
    144     48      2      0.0000000     19.2170000     18.2740000     25.3740000
    145     49      1      0.0000000     10.1740000      2.6110000      2.3000000
    146     49      2      0.0000000      9.3650000      2.1440000      1.9700000
    147     49      2      0.0000000     10.1740000      2.6110000      3.2910000
    148     50      1      0.0000000     10.1740000      2.6110000     17.0220000
    149     50      2      0.0000000      9.3650000      2.1440000     16.6920000
    150     50      2      0.0000000     10.1740000      2.6110000     18.0130000
    151     51      1      0.0000000     10.1740000     18.2740000      2.3000000
    152     51      2      0.0000000      9.3650000     17.8070000      1.9700000
    153     51      2      0.0000000     10.1740000     18.2740000      3.2910000
    154     52      1      0.0000000     10.1740000     18.2740000     17.0220000
    155     52      2      0.0000000      9.3650000     17.8070000     16.6920000
    156     52      2      0.0000000     10.1740000     18.2740000     18.0130000
    157     53      1      0.0000000     28.2600000      2.6110000      2.3000000
    158     53      2      0.0000000     27.4510000      2.1440000      1.9700000
    159     53      2      0.0000000     28.2600000      2.6110000      3.2910000
    160     54      1      0.0000000     28.2600000      2.6110000     17.0220000
    161     54      2      0.0000000     27.4510000      2.1440000     16.6920000
    162     54      2      0.0000000     28.2600000      2.6110000     18.0130000
    163     55      1      0.0000000     28.2600000     18.2740000      2.3000000
    164     55      2      0.0000000     27.4510000     17.8070000      1.9700000
    165     55      2      0.0000000     28.2600000     18.2740000      3.2910000
    166     56      1      0.0000000     28.2600000     18.2740000     17.0220000
    167     56      2      0.0000000     27.4510000     17.8070000     16.6920000
    168     56      2      0.0000000     28.2600000     18.2740000     18.0130000
    169     57      1      0.0000000     10.1740000      2.6110000      9.6610000
    170     57      2      0.0000000      9.3650000      2.1440000      9.3310000
    171     57      2      0.0000000     10.1740000      2.6110000     10.6520000
    172     58      1      0.0000000     10.1740000      2.6110000     24.3830000
    173     58      2      0.0000000      9.3650000      2.1440000     24.0530000
    174     58      2      0.0000000     10.1740000      2.6110000     25.3740000
    175     59      1      0.0000000     10.1740000     18.2740000      9.6610000
    176     59      2      0.0000000      9.3650000     17.8070000      9.3310000
    177     59      2      0.0000000     10.1740000     18.2740000     10.6520000
    178     60      1      0.0000000     10.1740000     18.2740000     24.3830000
    179     60      2      0.0000000      9.3650000     17.8070000     24.0530000
    180     60      2      0.0000000     10.1740000     18.2740000     25.3740000
    181     61      1      0.0000000     28.2600000      2.6110000      9.6610000
    182     61      2      0.0000000     27.4510000      2.1440000      9.3310000
    183     61      2      0.0000000     28.2600000      2.6110000     10.6520000
    184     62      1      0.0000000     28.2600000      2.6110000     24.3830000
    185     62      2      0.0000000     27.4510000      2.1440000     24.0530000
    186     62      2      0.0000000     28.2600000      2.6110000     25.3740000
    187     63      1      0.0000000     28.2600000     18.2740000      9.6610000
    188     63      2      0.0000000     27.4510000     17.8070000      9.3310000
    189     63      2      0.0000000     28.2600000     18.2740000     10.6520000
    190     64      1      0.0000000     28.2600000     18.2740000     24.3830000
    191     64      2      0.0000000     27.4510000     17.8070000     24.0530000
    192     64      2      0.0000000     28.2600000     18.2740000     25.3740000
    193     65      1      0.0000000      1.1310000      5.2210000      1.3810000
    194     65      2      0.0000000      1.9400000      5.6880000      1.7110000
    195     65      2      0.0000000      1.1310000      4.2870000      1.7110000
    196     66      1      0.0000000      1.1310000      5.2210000     16.1030000
    197     66      2      0.0000000      1.9400000      5.6880000     16.4330000
    198     66      2      0.0000000      1.1310000      4.2870000     16.4330000
    199     67      1      0.0000000      1.1310000     20.8840000      1.3810000
    200     67      2      0.0000000      1.9400000     21.3510000      1.7110000
    201     67      2      0.0000000      1.1310000     19.9500000      1.7110000
    202     68      1      0.0000000      1.1310000     20.8840000     16.1030000
    203     68      2      0.0000000      1.9400000     21.3510000     16.4330000
    204     68      2      0.0000000      1.1310000     19.9500000     16.4330000
    205     69      1      0.0000000     19.2170000      5.2210000      1.3810000
    206     69      2      0.0000000     20.0260000      5.6880000      1.7110000
    207     69      2      0.0000000     19.2170000      4.2870000      1.7110000
    208     70      1      0.0000000     19.2170000      5.2210000     16.1030000
    209     70      2      0.0000000     20.0260000      5.6880000     16.4330000
    210     70      2      0.0000000     19.2170000      4.2870000     16.4330000
    211     71      1      0.0000000     19.2170000     20.8840000      1.3810000
    212     71      2      0.0000000     20.0260000     21.3510000      1.7110000
    213     71      2      0.0000000     19.2170000     19.9500000      1.7110000
    214     72      1      0.0000000     19.2170000     20.8840000     16.1030000
    215     72      2      0.0000000     20.0260000     21.3510000     16.4330000
    216     72      2      0.0000000     19.2170000     19.9500000     16.4330000
    217     73      1      0.0000000      1.1310000      5.2210000      8.7420000
    218     73      2      0.0000000      1.9400000      5.6880000      9.0720000
    219     73      2      0.0000000      1.1310000      4.2870000      9.0720000
    220     74      1      0.0000000      1.1310000      5.2210000     23.4640000
    221     74      2      0.0000000      1.9400000      5.6880000     23.7940000
    222     74      2      0.0000000      1.1310000      4.2870000     23.7940000
    223     75      1      0.0000000      1.1310000     20.8840000      8.7420000
    224     75      2      0.0000000      1.9400000     21.3510000      9.0720000
    225     75      2      0.0000000      1.1310000     19.9500000      9.0720000
    226     76      1      0.0000000      1.1310000     20.8840000     23.4640000
    227     76      2      0.0000000      1.9400000     21.3510000     23.7940000
    228     76      2      0.0000000      1.1310000     19.9500000     23.7940000
    229     77      1      0.0000000     19.2170000      5.2210000      8.7420000
    230     77      2      0.0000000     20.0260000      5.6880000      9.0720000
    231     77      2      0.0000000     19.2170000      4.2870000      9.0720000
    232     78      1      0.0000000     19.2170000      5.2210000     23.4640000
    233     78      2      0.0000000     20.0260000      5.6880000     23.7940000
    234     78      2      0.0000000     19.2170000      4.2870000     23.7940000
    235     79      1      0.0000000     19.2170000     20.8840000      8.7420000
    236     79      2      0.0000000     20.0260000     21.3510000      9.0720000
    237     79      2      0.0000000     19.2170000     19.9500000      9.0720000
    238     80      1      0.0000000     19.2170000     20.8840000     23.4640000
    239     80      2      0.0000000     20.0260000     21.3510000     23.7940000
    240     80      2      0.0000000     19.2170000     19.9500000     23.7940000
    241     81      1      0.0000000     10.1740000      5.2210000      1.3810000
    242     81      2      0.0000000     10.9830000      5.6880000      1.7110000
    243     81      2      0.0000000     10.1740000      4.2870000      1.7110000
    244     82      1      0.0000000     10.1740000      5.2210000     16.1030000
    245     82      2      0.0000000     10.9830000      5.6880000     16.4330000
    246     82      2      0.0000000     10.1740000      4.2870000     16.4330000
    247     83      1      0.0000000     10.1740000     20.8840000      1.3810000
    248     83      2      0.0000000     10.9830000     21.3510000      1.7110000
    249     83      2      0.0000000     10.1740000     19.9500000      1.7110000
    250     84      1      0.0000000     10.1740000     20.8840000     16.1030000
    251     84      2      0.0000000     10.9830000     21.3510000     16.4330000
    252     84      2      0.0000000     10.1740000     19.9500000     16.4330000
    253     85      1      0.0000000     28.2600000      5.2210000      1.3810000
    254     85      2      0.0000000     29.0690000      5.6880000      1.7110000
    255     85      2      0.0000000     28.2600000      4.2870000      1.7110000
    256     86      1      0.0000000     28.2600000      5.2210000     16.1030000
    257     86      2      0.0000000     29.0690000      5.6880000     16.4330000
    258     86      2      0.0000000     28.2600000      4.2870000     16.4330000
    259     87      1      0.0000000     28.2600000     20.8840000      1.3810000
    260     87      2      0.0000000     29.0690000     21.3510000      1.7110000
    261     87      2      0.0000000     28.2600000     19.9500000      1.7110000
    262     88      1      0.0000000     28.2600000     20.8840000     16.1030000
    263     88      2      0.0000000     29.0690000     21.3510000     16.4330000
    264     88      2      0.0000000     28.2600000     19.9500000     16.4330000
    265     89      1      0.0000000     10.1740000      5.2210000      8.7420000
    266     89      2      0.0000000     10.9830000      5.6880000      9.0720000
    267     89      2      0.0000000     10.1740000      4.2870000      9.0720000
    268     90      1      0.0000000     10.1740000      5.2210000     23.4640000
    269     90      2      0.0000000     10.9830000      5.6880000     23.7940000
    270     90      2      0.0000000     10.1740000      4.2870000     23.7940000
    271     91      1      0.0000000     10.1740000     20.8840000      8.7420000
    272     91      2      0.0000000     10.9830000     21.3510000      9.0720000
    273     91      2      0.0000000     10.1740000     19.9500000      9.0720000
    274     92      1      0.0000000     10.1740000     20.8840000     23.4640000
    275     92      2      0.0000000     10.9830000     21.3510000     23.7940000
    276     92      2      0.0000000     10.1740000     19.9500000     23.7940000
    277     93      1      0.0000000     28.2600000      5.2210000      8.7420000
    278     93      2      0.0000000     29.0690000      5.6880000      9.0720000
    279     93      2      0.0000000     28.2600000      4.2870000      9.0720000
    280     94      1      0.0000000     28.2600000      5.2210000     23.4640000
    281     94      2      0.0000000     29.0690000      5.6880000     23.7940000
    282     94      2      0.0000000     28.2600000      4.2870000     23.7940000
    283     95      1      0.0000000     28.2600000     20.8840000      8.7420000
    284     95      2      0.0000000     29.0690000     21.3510000      9.0720000
    285     95      2      0.0000000     28.2600000     19.9500000      9.0720000
    286     96      1      0.0000000     28.2600000     20.8840000     23.4640000
    287     96      2      0.0000000     29.0690000     21.3510000     23.7940000
    288     96      2      0.0000000     28.2600000     19.9500000     23.7940000
    289     97      1      0.0000000      3.3910000      6.5260000      2.3000000
    290     97      2      0.0000000      4.2000000      6.0590000      1.9700000
    291     97      2      0.0000000      3.3910000      6.5260000      3.2910000
    292     98      1      0.0000000      3.3910000      6.5260000     17.0220000
    293     98      2      0.0000000      4.2000000      6.0590000     16.6920000
    294     98      2      0.0000000      3.3910000      6.5260000     18.0130000
    295     99      1      0.0000000      3.3910000     22.1890000      2.3000000
    296     99      2      0.0000000      4.2000000     21.7220000      1.9700000
    297     99      2      0.0000000      3.3910000     22.1890000      3.2910000
    298    100      1      0.0000000      3.3910000     22.1890000     17.0220000
    299    100      2      0.0000000      4.2000000     21.7220000     16.6920000
    300    100      2      0.0000000      3.3910000     22.1890000     18.0130000
    301    101      1      0.0000000     21.4770000      6.5260000      2.3000000
    302    101      2      0.0000000     22.2860000      6.0590000      1.9700000
    303    101      2      0.0000000     21.4770000      6.5260000      3.2910000
    304    102      1      0.0000000     21.4770000      6.5260000     17.0220000
    305    102      2      0.0000000     22.2860000      6.0590000     16.6920000
    306    102      2      0.0000000     21.4770000      6.5260000     18.0130000
    307    103      1      0.0000000     21.4770000     22.1890000      2.3000000
    308    103      2      0.0000000     22.2860000     21.7220000      1.9700000
    309    103      2      0.0000000     21.4770000     22.1890000      3.2910000
    310    104      1      0.0000000     21.4770000     22.1890000     17.0220000
    311    104      2      0.0000000     22.2860000     21.7220000     16.6920000
    312    104      2      0.0000000     21.4770000     22.1890000     18.0130000
    313    105      1      0.0000000      3.3910000      6.5260000      9.6610000
    314    105      2      0.0000000      4.2000000      6.0590000      9.3310000
    315    105      2      0.0000000      3.3910000      6.5260000     10.6520000
    316    106      1      0.0000000      3.3910000      6.5260000     24.3830000
    317    106      2      0.0000000      4.2000000      6.0590000     24.0530000
    318    106      2      0.0000000      3.3910000      6.5260000     25.3740000
    319    107      1      0.0000000      3.3910000     22.1890000      9.6610000
    320    107      2      0.0000000      4.2000000     21.7220000      9.3310000
    321    107      2      0.0000000      3.3910000     22.1890000     10.6520000
    322    108      1      0.0000000      3.3910000     22.1890000     24.3830000
    323    108      2      0.0000000      4.2000000     21.7220000     24.0530000
    324    108      2      0.0000000      3.3910000     22.1890000     25.3740000
    325    109      1      0.0000000     21.4770000      6.5260000      9.6610000
    326    109      2      0.0000000     22.2860000      6.0590000      9.3310000
    327    109      2      0.0000000     21.4770000      6.5260000     10.6520000
    328    110      1      0.0000000     21.4770000      6.5260000     24.3830000
    329    110      2      0.0000000     22.2860000      6.0590000     24.0530000
    330    110      2      0.0000000     21.4770000      6.5260000     25.3740000
    331    111      1      0.0000000     21.4770000     22.1890000      9.6610000
    332    111      2      0.0000000     22.2860000     21.7220000      9.3310000
    333    111      2      0.0000000     21.4770000     22.1890000     10.6520000
    334    112      1      0.0000000     21.4770000     22.1890000     24.3830000
    335    112      2      0.0000000     22.2860000     21.7220000     24.0530000
    336    112      2      0.0000000     21.4770000     22.1890000     25.3740000
    337    113      1      0.0000000     12.4340000      6.5260000      2.3000000
    338    113      2      0.0000000     13.2430000      6.0590000      1.9700000
    339    113      2      0.0000000     12.4340000      6.5260000      3.2910000
    340    114      1      0.0000000     12.4340000      6.5260000     17.0220000
    341    114      2      0.0000000     13.2430000      6.0590000     16.6920000
    342    114      2      0.0000000     12.4340000      6.5260000     18.0130000
    343    115      1      0.0000000     12.4340000     22.1890000      2.3000000
    344    115      2      0.0000000     13.2430000     21.7220000      1.9700000
    345    115      2      0.0000000     12.4340000     22.1890000      3.2910000
    346    116      1      0.0000000     12.4340000     22.1890000     17.0220000
    347    116      2      0.0000000     13.2430000     21.7220000     16.6920000
    348    116      2      0.0000000     12.4340000     22.1890000     18.0130000
    349    117      1      0.0000000     30.5200000      6.5260000      2.3000000
    350    117      2      0.0000000     31.3290000      6.0590000      1.9700000
    351    117      2      0.0000000     30.5200000      6.5260000      3.2910000
    352    118      1      0.0000000     30.5200000      6.5260000     17.0220000
    353    118      2      0.0000000     31.3290000      6.0590000     16.6920000
    354    118      2      0.0000000     30.5200000      6.5260000     18.0130000
    355    119      1      0.0000000     30.5200000     22.1890000      2.3000000
    356    119      2      0.0000000     31.3290000     21.7220000      1.9700000
    357    119      2      0.0000000     30.5200000     22.1890000      3.2910000
    358    120      1      0.0000000     30.5200000     22.1890000     17.0220000
    359    120      2      0.0000000     31.3290000     21.7220000     16.6920000
    360    120      2      0.0000000     30.5200000     22.1890000     18.0130000
    361    121      1      0.0000000     12.4340000      6.5260000      9.6610000